timestamp,open,high,low,close,adjusted_close,volume,dividend_amount,split_coefficient
2021-02-18,0.1425,0.145,0.12,0.135,0.135,26822,0.0000,1.0
2021-02-17,0.169,0.169,0.12,0.135,0.135,26822,0.0000,1.0
2021-02-16,0.12,0.1445,0.12,0.1445,0.1445,20253,0.0000,1.0
2021-02-12,0.17,0.17,0.12,0.12,0.12,58006,0.0000,1.0
2021-02-11,0.11,0.13,0.11,0.12,0.12,6128,0.0000,1.0
2021-02-10,0.11,0.12,0.11,0.115,0.115,6003,0.0000,1.0
2021-02-09,0.12,0.12,0.115,0.115,0.115,6003,0.0000,1.0
2021-02-08,0.11,0.12,0.11,0.12,0.12,6627,0.0000,1.0
2021-02-05,0.12,0.12,0.105,0.12,0.12,31467,0.0000,1.0
2021-02-04,0.105,0.12,0.105,0.12,0.12,937,0.0000,1.0
2021-02-03,0.1,0.105,0.1,0.105,0.105,9276,0.0000,1.0
2021-02-02,0.1,0.12,0.1,0.112,0.112,22568,0.0000,1.0
2021-02-01,0.12,0.12,0.105,0.105,0.105,3400,0.0000,1.0
2021-01-29,0.1125,0.12,0.1125,0.12,0.12,12048,0.0000,1.0
2021-01-28,0.12,0.12,0.1125,0.12,0.12,20055,0.0000,1.0
2021-01-27,0.105,0.105,0.105,0.105,0.105,0,0.0000,1.0
2021-01-26,0.105,0.105,0.105,0.105,0.105,2000,0.0000,1.0
2021-01-25,0.1,0.1295,0.1,0.11,0.11,48807,0.0000,1.0
2021-01-22,0.1198,0.1345,0.1198,0.1345,0.1345,1120,0.0000,1.0
2021-01-21,0.1,0.105,0.1,0.105,0.105,2401,0.0000,1.0
2021-01-20,0.187,0.187,0.1,0.1,0.1,20500,0.0000,1.0
2021-01-19,0.1,0.1345,0.1,0.1345,0.1345,1573,0.0000,1.0
2021-01-15,0.12,0.12,0.12,0.12,0.12,6880,0.0000,1.0
2021-01-14,0.12,0.12,0.11,0.11,0.11,1322,0.0000,1.0
2021-01-13,0.11,0.11,0.11,0.11,0.11,44,0.0000,1.0
2021-01-12,0.11,0.11,0.11,0.11,0.11,151,0.0000,1.0
2021-01-11,0.1,0.11,0.1,0.11,0.11,29596,0.0000,1.0
2021-01-08,0.117,0.1198,0.1049,0.1049,0.1049,940,0.0000,1.0
2021-01-07,0.12,0.12,0.09,0.12,0.12,17578,0.0000,1.0
2021-01-06,0.09,0.135,0.09,0.135,0.135,1251,0.0000,1.0
2021-01-05,0.09,0.09,0.09,0.09,0.09,166,0.0000,1.0
2021-01-04,0.08,0.122,0.08,0.122,0.122,3851,0.0000,1.0
2020-12-31,0.041,0.1078,0.041,0.07,0.07,3864,0.0000,1.0
2020-12-30,0.05,0.10804,0.05,0.10804,0.10804,5120,0.0000,1.0
2020-12-29,0.12,0.12,0.0601,0.0601,0.0601,1549,0.0000,1.0
2020-12-28,0.0667,0.15,0.0455,0.10704,0.10704,44051,0.0000,1.0
2020-12-24,0.1422,0.1422,0.12,0.12,0.12,35610,0.0000,1.0
2020-12-23,0.1385,0.1385,0.1385,0.1385,0.1385,600,0.0000,1.0
2020-12-22,0.12,0.1533,0.12,0.1533,0.1533,31034,0.0000,1.0
2020-12-21,0.12,0.12,0.12,0.12,0.12,66253,0.0000,1.0
2020-12-18,0.12,0.1237,0.12,0.1237,0.1237,2650,0.0000,1.0
2020-12-17,0.033,0.13,0.033,0.12,0.12,59427,0.0000,1.0
2020-12-16,0.167,0.167,0.167,0.167,0.167,11150,0.0000,1.0
2020-12-15,0.125,0.167,0.125,0.167,0.167,11150,0.0000,1.0
2020-12-14,0.12,0.12,0.12,0.12,0.12,166,0.0000,1.0
2020-12-11,0.13,0.13,0.13,0.13,0.13,1000,0.0000,1.0
2020-12-10,0.14,0.14,0.13,0.13,0.13,20550,0.0000,1.0
2020-12-09,0.13,0.13,0.13,0.13,0.13,12136,0.0000,1.0
2020-12-08,0.165,0.165,0.13,0.13,0.13,4808,0.0000,1.0
2020-12-07,0.14,0.155,0.13,0.155,0.155,1993,0.0000,1.0
2020-12-04,0.13,0.15,0.13,0.13,0.13,17244,0.0000,1.0
2020-12-03,0.13,0.13,0.13,0.13,0.13,2100,0.0000,1.0
2020-12-02,0.13,0.13,0.13,0.13,0.13,1915,0.0000,1.0
2020-12-01,0.141,0.141,0.141,0.141,0.141,18,0.0000,1.0
2020-11-30,0.13,0.141,0.13,0.141,0.141,12100,0.0000,1.0
2020-11-27,0.121,0.18,0.121,0.1303,0.1303,7476,0.0000,1.0
2020-11-25,0.13,0.13,0.13,0.13,0.13,15002,0.0000,1.0
2020-11-24,0.13,0.13,0.13,0.13,0.13,10148,0.0000,1.0
2020-11-23,0.13,0.13,0.13,0.13,0.13,0,0.0000,1.0
2020-11-20,0.153,0.153,0.1255,0.13,0.13,10148,0.0000,1.0
2020-11-19,0.1485,0.185,0.1485,0.185,0.185,4643,0.0000,1.0
2020-11-18,0.13,0.16,0.13,0.16,0.16,10766,0.0000,1.0
2020-11-17,0.121,0.121,0.121,0.121,0.121,2867,0.0000,1.0
2020-11-16,0.1255,0.1255,0.121,0.125,0.125,5901,0.0000,1.0
2020-11-13,0.1255,0.1255,0.1255,0.1255,0.1255,800,0.0000,1.0
2020-11-12,0.12,0.12,0.12,0.12,0.12,6011,0.0000,1.0
2020-11-11,0.12898,0.12898,0.12898,0.12898,0.12898,278,0.0000,1.0
2020-11-10,0.138,0.138,0.138,0.138,0.138,22,0.0000,1.0
2020-11-09,0.138,0.138,0.138,0.138,0.138,252,0.0000,1.0
2020-11-06,0.12,0.12,0.12,0.12,0.12,774,0.0000,1.0
2020-11-05,0.1275,0.1275,0.1275,0.1275,0.1275,233,0.0000,1.0
2020-11-04,0.12,0.12,0.12,0.12,0.12,100,0.0000,1.0
2020-11-03,0.12,0.12,0.12,0.12,0.12,20,0.0000,1.0
2020-11-02,0.12,0.12,0.12,0.12,0.12,10960,0.0000,1.0
2020-10-30,0.13,0.1399,0.13,0.1399,0.1399,310,0.0000,1.0
2020-10-29,0.1798,0.1798,0.12,0.12,0.12,25720,0.0000,1.0
2020-10-28,0.115,0.115,0.115,0.115,0.115,5,0.0000,1.0
2020-10-27,0.11,0.115,0.11,0.115,0.115,340,0.0000,1.0
2020-10-26,0.125,0.14,0.125,0.1251,0.1251,4000,0.0000,1.0
2020-10-23,0.1,0.1,0.1,0.1,0.1,2195,0.0000,1.0
2020-10-22,0.09926,0.09926,0.09926,0.09926,0.09926,441,0.0000,1.0
2020-10-21,0.14,0.14,0.14,0.14,0.14,20,0.0000,1.0
2020-10-20,0.14,0.14,0.14,0.14,0.14,24,0.0000,1.0
2020-10-19,0.14,0.14,0.14,0.14,0.14,0,0.0000,1.0
2020-10-16,0.14,0.14,0.14,0.14,0.14,0,0.0000,1.0
2020-10-15,0.12,0.14,0.12,0.14,0.14,11773,0.0000,1.0
2020-10-14,0.125,0.1871,0.125,0.125,0.125,53187,0.0000,1.0
2020-10-13,0.12,0.12,0.12,0.12,0.12,16200,0.0000,1.0
2020-10-12,0.12,0.12,0.12,0.12,0.12,3777,0.0000,1.0
2020-10-09,0.0841,0.12,0.0841,0.12,0.12,738,0.0000,1.0
2020-10-08,0.12,0.12,0.12,0.12,0.12,0,0.0000,1.0
2020-10-07,0.12,0.12,0.12,0.12,0.12,451,0.0000,1.0
2020-10-06,0.11,0.11,0.11,0.11,0.11,3,0.0000,1.0
2020-10-05,0.11,0.11,0.11,0.11,0.11,100,0.0000,1.0
2020-10-02,0.0841,0.11,0.0841,0.11,0.11,2305,0.0000,1.0
2020-10-01,0.11,0.11,0.11,0.11,0.11,9000,0.0000,1.0
2020-09-30,0.1,0.1,0.1,0.1,0.1,801,0.0000,1.0
2020-09-29,0.1,0.1,0.1,0.1,0.1,0,0.0000,1.0
2020-09-28,0.13411,0.1378,0.1,0.1,0.1,2265,0.0000,1.0
2020-09-25,0.1,0.1,0.1,0.1,0.1,0,0.0000,1.0
2020-09-24,0.113325,0.113325,0.098,0.1,0.1,224791,0.0000,1.0
2020-09-23,0.1042,0.2,0.1041,0.106,0.106,181709,0.0000,1.0
2020-09-22,0.1041,0.1041,0.1041,0.1041,0.1041,3,0.0000,1.0
2020-09-21,0.1041,0.1041,0.1041,0.1041,0.1041,0,0.0000,1.0
2020-09-18,0.1041,0.1041,0.1041,0.1041,0.1041,0,0.0000,1.0
2020-09-17,0.1041,0.1041,0.1041,0.1041,0.1041,0,0.0000,1.0
2020-09-16,0.1041,0.1041,0.1041,0.1041,0.1041,145,0.0000,1.0
2020-09-15,0.12525,0.12525,0.12525,0.12525,0.12525,500,0.0000,1.0
2020-09-14,0.12,0.12,0.12,0.12,0.12,505,0.0000,1.0
2020-09-11,0.12,0.12,0.12,0.12,0.12,300,0.0000,1.0
2020-09-10,0.1333,0.1333,0.1333,0.1333,0.1333,1277,0.0000,1.0
2020-09-09,0.12,0.12,0.12,0.12,0.12,0,0.0000,1.0
2020-09-08,0.14,0.14,0.12,0.12,0.12,11577,0.0000,1.0
2020-09-04,0.13,0.13,0.13,0.13,0.13,27,0.0000,1.0
2020-09-03,0.13,0.13,0.13,0.13,0.13,8262,0.0000,1.0
2020-09-02,0.1569,0.1569,0.12,0.1468,0.1468,11642,0.0000,1.0
2020-09-01,0.104,0.1569,0.104,0.13045,0.13045,22154,0.0000,1.0
2020-08-31,0.104,0.1577,0.104,0.1577,0.1577,7714,0.0000,1.0
2020-08-28,0.1499,0.1499,0.1499,0.1499,0.1499,0,0.0000,1.0
2020-08-27,0.1499,0.1499,0.1499,0.1499,0.1499,0,0.0000,1.0
2020-08-26,0.1499,0.1499,0.1499,0.1499,0.1499,0,0.0000,1.0
2020-08-25,0.1499,0.1499,0.1499,0.1499,0.1499,1,0.0000,1.0
2020-08-24,0.114,0.1499,0.114,0.1499,0.1499,1137,0.0000,1.0
2020-08-21,0.114,0.114,0.114,0.114,0.114,0,0.0000,1.0
2020-08-20,0.114,0.114,0.114,0.114,0.114,125,0.0000,1.0
2020-08-19,0.12,0.12,0.12,0.12,0.12,0,0.0000,1.0
2020-08-18,0.1195,0.12,0.1195,0.12,0.12,2515,0.0000,1.0
2020-08-17,0.104,0.104,0.104,0.104,0.104,111,0.0000,1.0
2020-08-14,0.1489,0.1489,0.1489,0.1489,0.1489,1000,0.0000,1.0
2020-08-13,0.102,0.1599,0.102,0.1489,0.1489,6810,0.0000,1.0
2020-08-12,0.16313,0.1692,0.16313,0.1692,0.1692,1705,0.0000,1.0
2020-08-11,0.102,0.12,0.102,0.12,0.12,14249,0.0000,1.0
2020-08-10,0.1379,0.1379,0.1,0.12,0.12,18400,0.0000,1.0
2020-08-07,0.114,0.114,0.114,0.114,0.114,9999,0.0000,1.0
2020-08-06,0.115,0.115,0.115,0.115,0.115,27,0.0000,1.0
2020-08-05,0.128725,0.1699,0.115,0.115,0.115,17878,0.0000,1.0
2020-08-04,0.115,0.115,0.115,0.115,0.115,0,0.0000,1.0
2020-08-03,0.16,0.16,0.115,0.115,0.115,9712,0.0000,1.0
2020-07-31,0.115,0.115,0.115,0.115,0.115,2,0.0000,1.0
2020-07-30,0.115,0.115,0.115,0.115,0.115,5444,0.0000,1.0
2020-07-29,0.12499,0.12499,0.115,0.115,0.115,4706,0.0000,1.0
2020-07-28,0.115,0.115,0.115,0.115,0.115,0,0.0000,1.0
2020-07-27,0.1788,0.1788,0.115,0.115,0.115,1542,0.0000,1.0
2020-07-24,0.12,0.12,0.12,0.12,0.12,1,0.0000,1.0
2020-07-23,0.12,0.12,0.12,0.12,0.12,1,0.0000,1.0
2020-07-22,0.12,0.12,0.12,0.12,0.12,560,0.0000,1.0
2020-07-21,0.14058,0.14058,0.12,0.12,0.12,6600,0.0000,1.0
2020-07-20,0.12,0.13176,0.12,0.13176,0.13176,10200,0.0000,1.0
2020-07-17,0.126,0.126,0.126,0.126,0.126,10600,0.0000,1.0
2020-07-16,0.12,0.12,0.12,0.12,0.12,1200,0.0000,1.0
2020-07-15,0.114,0.1746,0.11,0.1746,0.1746,17700,0.0000,1.0
2020-07-14,0.12,0.1789,0.12,0.1789,0.1789,13800,0.0000,1.0
2020-07-13,0.13,0.1794,0.13,0.1794,0.1794,800,0.0000,1.0
2020-07-10,0.114,0.114,0.114,0.114,0.114,70,0.0000,1.0
2020-07-09,0.114,0.114,0.114,0.114,0.114,10000,0.0000,1.0
2020-07-08,0.15,0.15,0.15,0.15,0.15,80,0.0000,1.0
2020-07-07,0.15,0.15,0.15,0.15,0.15,0,0.0000,1.0
2020-07-06,0.13,0.15,0.13,0.15,0.15,9200,0.0000,1.0
2020-07-02,0.14,0.16,0.14,0.145,0.145,23016,0.0000,1.0
2020-07-01,0.1201,0.135,0.1201,0.135,0.135,2254,0.0000,1.0
2020-06-30,0.1699,0.1699,0.135,0.1355,0.1355,15323,0.0000,1.0
2020-06-29,0.1206,0.1206,0.1206,0.1206,0.1206,278,0.0000,1.0
2020-06-26,0.17,0.1794,0.14,0.14,0.14,29900,0.0000,1.0
2020-06-25,0.15,0.16,0.15,0.16,0.16,16000,0.0000,1.0
2020-06-23,0.1405,0.1405,0.1405,0.1405,0.1405,101,0.0000,1.0
2020-06-22,0.14,0.14,0.14,0.14,0.14,4278,0.0000,1.0
2020-06-19,0.155,0.155,0.14,0.155,0.155,10266,0.0000,1.0
2020-06-18,0.15,0.1699,0.15,0.15,0.15,36774,0.0000,1.0
2020-06-17,0.14,0.16,0.14,0.14,0.14,4279,0.0000,1.0
2020-06-16,0.13,0.13,0.13,0.13,0.13,135,0.0000,1.0
2020-06-15,0.1201,0.1201,0.1201,0.1201,0.1201,222,0.0000,1.0
2020-06-12,0.14995,0.1699,0.14995,0.1699,0.1699,1301,0.0000,1.0
2020-06-11,0.16,0.16,0.16,0.16,0.16,59,0.0000,1.0
2020-06-10,0.1699,0.1699,0.16,0.16,0.16,4897,0.0000,1.0
2020-06-09,0.1141,0.16,0.1141,0.16,0.16,70572,0.0000,1.0
2020-06-08,0.15,0.1697,0.1499,0.15,0.15,11932,0.0000,1.0
2020-06-05,0.15,0.15,0.14,0.14,0.14,6105,0.0000,1.0
2020-06-04,0.15,0.15,0.15,0.15,0.15,927,0.0000,1.0
2020-06-03,0.13,0.13,0.13,0.13,0.13,198,0.0000,1.0
2020-06-02,0.12,0.13,0.12,0.13,0.13,5500,0.0000,1.0
2020-06-01,0.124,0.13598,0.124,0.13,0.13,10769,0.0000,1.0
2020-05-29,0.1241,0.13,0.1241,0.13,0.13,10180,0.0000,1.0
2020-05-28,0.13,0.13,0.13,0.13,0.13,1,0.0000,1.0
2020-05-27,0.1241,0.13,0.1241,0.13,0.13,1187,0.0000,1.0
2020-05-26,0.1301,0.1301,0.1301,0.1301,0.1301,5,0.0000,1.0
2020-05-22,0.1241,0.1301,0.1241,0.1301,0.1301,10130,0.0000,1.0
2020-05-21,0.13,0.1795,0.13,0.1301,0.1301,1777,0.0000,1.0
2020-05-20,0.1366,0.16,0.13,0.16,0.16,28316,0.0000,1.0
2020-05-19,0.15,0.15,0.13,0.13,0.13,700,0.0000,1.0
2020-05-18,0.1795,0.1795,0.1251,0.1251,0.1251,11395,0.0000,1.0
2020-05-15,0.1251,0.1251,0.1251,0.1251,0.1251,300,0.0000,1.0
2020-05-14,0.1241,0.1241,0.1241,0.1241,0.1241,2001,0.0000,1.0
2020-05-13,0.1241,0.15,0.1241,0.1247,0.1247,1312,0.0000,1.0
2020-05-12,0.1251,0.1798,0.1251,0.1798,0.1798,14275,0.0000,1.0
2020-05-11,0.14,0.14,0.14,0.14,0.14,149,0.0000,1.0
2020-05-08,0.1242,0.1798,0.1242,0.15,0.15,1491,0.0000,1.0
2020-05-07,0.1242,0.161338,0.1242,0.1242,0.1242,14886,0.0000,1.0
2020-05-06,0.15,0.15,0.15,0.15,0.15,310,0.0000,1.0
2020-05-05,0.1141,0.12758,0.1141,0.1252,0.1252,13868,0.0000,1.0
2020-05-04,0.135,0.135,0.135,0.135,0.135,1067,0.0000,1.0
2020-05-01,0.1699,0.1699,0.135,0.135,0.135,1787,0.0000,1.0
2020-04-30,0.125,0.1699,0.125,0.1694,0.1694,8007,0.0000,1.0
2020-04-29,0.1251,0.1699,0.1251,0.13,0.13,4145,0.0000,1.0
2020-04-28,0.17,0.17,0.17,0.17,0.17,450,0.0000,1.0
2020-04-27,0.1141,0.17,0.1141,0.17,0.17,11463,0.0000,1.0
2020-04-24,0.13,0.14,0.13,0.14,0.14,5110,0.0000,1.0
2020-04-23,0.135,0.1799,0.1141,0.13,0.13,1768,0.0000,1.0
2020-04-22,0.135,0.135,0.135,0.135,0.135,1248,0.0000,1.0
2020-04-21,0.135,0.19985,0.135,0.176535,0.176535,5267,0.0000,1.0
2020-04-20,0.135,0.1989,0.135,0.1989,0.1989,2510,0.0000,1.0
2020-04-17,0.17,0.1999,0.1351,0.1351,0.1351,38258,0.0000,1.0
2020-04-16,0.1899,0.1899,0.135,0.135,0.135,702,0.0000,1.0
2020-04-15,0.139,0.139,0.139,0.139,0.139,1,0.0000,1.0
2020-04-14,0.139,0.139,0.139,0.139,0.139,1,0.0000,1.0
2020-04-13,0.139,0.139,0.139,0.139,0.139,2,0.0000,1.0
2020-04-09,0.139,0.1899,0.139,0.139,0.139,6286,0.0000,1.0
2020-04-07,0.125,0.1999,0.125,0.145,0.145,52020,0.0000,1.0
2020-04-06,0.152,0.152,0.152,0.152,0.152,26,0.0000,1.0
2020-04-03,0.115,0.152,0.114,0.152,0.152,31167,0.0000,1.0
2020-04-02,0.125,0.125,0.125,0.125,0.125,2,0.0000,1.0
2020-04-01,0.125,0.125,0.125,0.125,0.125,2,0.0000,1.0
2020-03-31,0.125,0.15,0.125,0.125,0.125,13362,0.0000,1.0
2020-03-30,0.12,0.15,0.12,0.15,0.15,6308,0.0000,1.0
2020-03-27,0.139,0.14,0.125,0.125,0.125,20210,0.0000,1.0
2020-03-26,0.14,0.14,0.114,0.125,0.125,64475,0.0000,1.0
2020-03-25,0.1301,0.14,0.1301,0.14,0.14,11909,0.0000,1.0
2020-03-24,0.1799,0.1898,0.1201,0.1699,0.1699,42018,0.0000,1.0
2020-03-23,0.1206,0.1996,0.114,0.1301,0.1301,74690,0.0000,1.0
2020-03-20,0.1201,0.1814,0.1201,0.17,0.17,16554,0.0000,1.0
2020-03-19,0.1201,0.165,0.1201,0.165,0.165,3590,0.0000,1.0
2020-03-18,0.1201,0.1201,0.1201,0.1201,0.1201,13000,0.0000,1.0
2020-03-17,0.165,0.165,0.12,0.1201,0.1201,25210,0.0000,1.0
2020-03-16,0.22,0.23,0.1201,0.15,0.15,12202,0.0000,1.0
2020-03-13,0.1206,0.1206,0.1206,0.1206,0.1206,1550,0.0000,1.0
2020-03-12,0.1206,0.1206,0.1206,0.1206,0.1206,507,0.0000,1.0
2020-03-11,0.1206,0.1206,0.1206,0.1206,0.1206,100,0.0000,1.0
2020-03-10,0.1206,0.232,0.1205,0.232,0.232,65964,0.0000,1.0
2020-03-09,0.1206,0.1206,0.1206,0.1206,0.1206,12,0.0000,1.0
2020-03-06,0.1206,0.1206,0.1206,0.1206,0.1206,493,0.0000,1.0
2020-03-05,0.18382,0.1898,0.18382,0.1898,0.1898,1535,0.0000,1.0
2020-03-03,0.1204,0.1552,0.1204,0.1552,0.1552,522,0.0000,1.0
2020-03-02,0.128,0.1899,0.128,0.13,0.13,102236,0.0000,1.0
2020-02-28,0.1202,0.13,0.1202,0.13,0.13,25373,0.0000,1.0
2020-02-27,0.1201,0.1202,0.1201,0.1202,0.1202,6500,0.0000,1.0
2020-02-26,0.1899,0.1899,0.1301,0.1301,0.1301,10170,0.0000,1.0
2020-02-25,0.1201,0.1201,0.1201,0.1201,0.1201,3350,0.0000,1.0
2020-02-24,0.1899,0.1899,0.1201,0.13,0.13,497,0.0000,1.0
2020-02-21,0.1201,0.1998,0.1201,0.1301,0.1301,4329,0.0000,1.0
2020-02-20,0.1201,0.18,0.1201,0.18,0.18,5801,0.0000,1.0
2020-02-19,0.13697,0.13697,0.13,0.13,0.13,8364,0.0000,1.0
2020-02-18,0.1999,0.1999,0.1201,0.13,0.13,2578,0.0000,1.0
2020-02-13,0.1999,0.1999,0.1999,0.1999,0.1999,271,0.0000,1.0
2020-02-12,0.1201,0.1201,0.1201,0.1201,0.1201,254,0.0000,1.0
2020-02-11,0.139975,0.1999,0.1301,0.1301,0.1301,4287,0.0000,1.0
2020-02-10,0.13,0.154,0.13,0.154,0.154,10816,0.0000,1.0
2020-02-07,0.12,0.13,0.12,0.13,0.13,2903,0.0000,1.0
2020-02-06,0.13,0.1499,0.121,0.13,0.13,26882,0.0000,1.0
2020-02-05,0.135,0.13975,0.12,0.13975,0.13975,87768,0.0000,1.0
2020-02-04,0.1201,0.15,0.12,0.13745,0.13745,51341,0.0000,1.0
2020-02-03,0.16,0.16,0.1201,0.1201,0.1201,1053,0.0000,1.0
2020-01-31,0.1201,0.13,0.1201,0.13,0.13,1957,0.0000,1.0
2020-01-30,0.18,0.19,0.1201,0.1201,0.1201,6156,0.0000,1.0
2020-01-29,0.1351,0.1351,0.13,0.13,0.13,15712,0.0000,1.0
2020-01-28,0.1201,0.15,0.1201,0.15,0.15,13000,0.0000,1.0
2020-01-27,0.1201,0.15,0.1201,0.1303,0.1303,4284,0.0000,1.0
2020-01-24,0.15,0.15,0.15,0.15,0.15,1214,0.0000,1.0
2020-01-23,0.19,0.19,0.1201,0.1401,0.1401,1459,0.0000,1.0
2020-01-22,0.14,0.2,0.12,0.1201,0.1201,6022,0.0000,1.0
2020-01-21,0.145,0.2,0.14,0.14,0.14,3260,0.0000,1.0
2020-01-17,0.1725,0.1725,0.1725,0.1725,0.1725,1,0.0000,1.0
2020-01-16,0.2,0.2,0.155,0.1725,0.1725,6793,0.0000,1.0
2020-01-15,0.16,0.2,0.14,0.14,0.14,2727,0.0000,1.0
2020-01-14,0.145,0.16,0.145,0.16,0.16,1364,0.0000,1.0
2020-01-13,0.15,0.15,0.15,0.15,0.15,6024,0.0000,1.0
2020-01-10,0.165,0.165,0.145,0.145,0.145,16799,0.0000,1.0
2020-01-09,0.16835,0.16835,0.1655,0.1655,0.1655,478,0.0000,1.0
2020-01-08,0.23,0.23,0.165,0.165,0.165,3223,0.0000,1.0
2020-01-07,0.14,0.23,0.14,0.1635,0.1635,118284,0.0000,1.0
2020-01-06,0.14,0.14,0.14,0.14,0.14,2749,0.0000,1.0
2020-01-03,0.14,0.14,0.1251,0.14,0.14,23886,0.0000,1.0
2020-01-02,0.14,0.16,0.14,0.14,0.14,2494,0.0000,1.0
2019-12-31,0.1425,0.19,0.14,0.15,0.15,8291,0.0000,1.0
2019-12-30,0.1221,0.19,0.1221,0.15,0.15,52377,0.0000,1.0
2019-12-27,0.13,0.14,0.13,0.13,0.13,13054,0.0000,1.0
2019-12-26,0.1221,0.138,0.1221,0.13,0.13,5611,0.0000,1.0
2019-12-24,0.122,0.15005,0.122,0.1301,0.1301,2130,0.0000,1.0
2019-12-23,0.1201,0.19,0.1201,0.13,0.13,49694,0.0000,1.0
2019-12-20,0.1501,0.1501,0.15,0.15,0.15,3500,0.0000,1.0
2019-12-19,0.15,0.15,0.15,0.15,0.15,3591,0.0000,1.0
2019-12-18,0.1505,0.152,0.15,0.152,0.152,6560,0.0000,1.0
2019-12-17,0.165,0.165,0.15,0.15,0.15,10517,0.0000,1.0
2019-12-16,0.15,0.15525,0.15,0.15525,0.15525,4400,0.0000,1.0
2019-12-13,0.17,0.17,0.17,0.17,0.17,22,0.0000,1.0
2019-12-12,0.17,0.17,0.155,0.17,0.17,19540,0.0000,1.0
2019-12-11,0.15,0.16,0.15,0.16,0.16,33687,0.0000,1.0
2019-12-10,0.198,0.198,0.198,0.198,0.198,165,0.0000,1.0
2019-12-09,0.15,0.15,0.15,0.15,0.15,1185,0.0000,1.0
2019-12-06,0.155,0.155,0.155,0.155,0.155,2337,0.0000,1.0
2019-12-05,0.15,0.16,0.15,0.16,0.16,986,0.0000,1.0
2019-12-04,0.15,0.15,0.15,0.15,0.15,440,0.0000,1.0
2019-12-03,0.19,0.19,0.15,0.165,0.165,2651,0.0000,1.0
2019-12-02,0.15,0.18,0.15,0.18,0.18,3521,0.0000,1.0
2019-11-29,0.155,0.155,0.155,0.155,0.155,5096,0.0000,1.0
2019-11-27,0.14,0.14,0.14,0.14,0.14,5564,0.0000,1.0
2019-11-26,0.16,0.16,0.155,0.155,0.155,3540,0.0000,1.0
2019-11-25,0.13055,0.18,0.13055,0.133,0.133,8900,0.0000,1.0
2019-11-22,0.1995,0.1995,0.1995,0.1995,0.1995,706,0.0000,1.0
2019-11-21,0.1201,0.1202,0.1201,0.1202,0.1202,1179,0.0000,1.0
2019-11-19,0.15,0.15,0.15,0.15,0.15,1800,0.0000,1.0
2019-11-18,0.1995,0.1995,0.123,0.14,0.14,26095,0.0000,1.0
2019-11-15,0.16,0.17,0.16,0.16,0.16,5543,0.0000,1.0
2019-11-14,0.17,0.17,0.17,0.17,0.17,21211,0.0000,1.0
2019-11-13,0.17,0.172,0.17,0.172,0.172,20543,0.0000,1.0
2019-11-12,0.17,0.17,0.17,0.17,0.17,15201,0.0000,1.0
2019-11-11,0.18,0.18,0.18,0.18,0.18,3168,0.0000,1.0
2019-11-08,0.18,0.18,0.17,0.17,0.17,871,0.0000,1.0
2019-11-07,0.18,0.2,0.18,0.18,0.18,44865,0.0000,1.0
2019-11-06,0.18,0.18,0.18,0.18,0.18,11177,0.0000,1.0
2019-11-05,0.16,0.16,0.16,0.16,0.16,116,0.0000,1.0
2019-11-04,0.16,0.19,0.16,0.16,0.16,11062,0.0000,1.0
2019-11-01,0.16,0.1995,0.16,0.19,0.19,707,0.0000,1.0
2019-10-31,0.16,0.16,0.16,0.16,0.16,5938,0.0000,1.0
2019-10-30,0.165925,0.17975,0.16,0.17975,0.17975,8088,0.0000,1.0
2019-10-29,0.16,0.16,0.16,0.16,0.16,1014,0.0000,1.0
2019-10-28,0.19,0.1908,0.17,0.17,0.17,43078,0.0000,1.0
2019-10-25,0.16,0.17,0.16,0.17,0.17,7000,0.0000,1.0
2019-10-24,0.16,0.1999,0.16,0.1999,0.1999,10310,0.0000,1.0
2019-10-23,0.17995,0.17995,0.16,0.16,0.16,1559,0.0000,1.0
2019-10-22,0.16,0.16,0.16,0.16,0.16,17487,0.0000,1.0
2019-10-21,0.16,0.17,0.16,0.17,0.17,50895,0.0000,1.0
2019-10-18,0.2053,0.2053,0.131,0.131,0.131,483,0.0000,1.0
2019-10-17,0.2053,0.2053,0.131,0.16,0.16,28404,0.0000,1.0
2019-10-16,0.13,0.15,0.13,0.15,0.15,712,0.0000,1.0
2019-10-15,0.15,0.16,0.15,0.16,0.16,2181,0.0000,1.0
2019-10-14,0.1999,0.1999,0.1999,0.1999,0.1999,781,0.0000,1.0
2019-10-11,0.15,0.15598,0.15,0.15,0.15,2300,0.0000,1.0
2019-10-10,0.16,0.2051,0.16,0.18,0.18,5190,0.0000,1.0
2019-10-09,0.16,0.1849,0.15,0.15,0.15,13888,0.0000,1.0
2019-10-08,0.13,0.15,0.13,0.15,0.15,2100,0.0000,1.0
2019-10-07,0.161,0.161,0.161,0.161,0.161,28,0.0000,1.0
2019-10-04,0.1949,0.1949,0.16,0.161,0.161,11750,0.0000,1.0
2019-10-03,0.13,0.13,0.13,0.13,0.13,1,0.0000,1.0
2019-10-02,0.13,0.13,0.13,0.13,0.13,889,0.0000,1.0
2019-10-01,0.16,0.16,0.16,0.16,0.16,20,0.0000,1.0
2019-09-30,0.14,0.16,0.12,0.16,0.16,42210,0.0000,1.0
2019-09-27,0.2199,0.2199,0.16,0.16,0.16,250,0.0000,1.0
2019-09-26,0.24,0.24,0.1401,0.1401,0.1401,3280,0.0000,1.0
2019-09-24,0.16323,0.16323,0.16,0.16,0.16,1651,0.0000,1.0
2019-09-23,0.14,0.19,0.13,0.19,0.19,11126,0.0000,1.0
2019-09-20,0.12,0.19,0.12,0.16,0.16,1718,0.0000,1.0
2019-09-19,0.19,0.19,0.19,0.19,0.19,2000,0.0000,1.0
2019-09-18,0.17,0.17,0.16,0.16,0.16,4007,0.0000,1.0
2019-09-17,0.17,0.2245,0.16,0.16,0.16,17582,0.0000,1.0
2019-09-16,0.16,0.16,0.16,0.16,0.16,21064,0.0000,1.0
2019-09-13,0.17,0.17,0.17,0.17,0.17,52,0.0000,1.0
2019-09-12,0.15,0.17,0.15,0.17,0.17,733,0.0000,1.0
2019-09-11,0.17,0.17,0.17,0.17,0.17,1195,0.0000,1.0
2019-09-10,0.17,0.17,0.17,0.17,0.17,95,0.0000,1.0
2019-09-09,0.15,0.17,0.15,0.17,0.17,11999,0.0000,1.0
2019-09-06,0.15,0.17,0.15,0.17,0.17,12372,0.0000,1.0
2019-09-05,0.16,0.2246,0.15,0.15,0.15,26025,0.0000,1.0
2019-09-04,0.1317,0.16,0.1317,0.16,0.16,65385,0.0000,1.0
2019-09-03,0.14,0.17,0.14,0.17,0.17,14491,0.0000,1.0
2019-08-30,0.22,0.22,0.16,0.172485,0.172485,6242,0.0000,1.0
2019-08-29,0.2198,0.2198,0.1401,0.19735,0.19735,10601,0.0000,1.0
2019-08-28,0.17,0.17,0.17,0.17,0.17,17905,0.0000,1.0
2019-08-27,0.13165,0.16,0.13165,0.16,0.16,5413,0.0000,1.0
2019-08-26,0.16,0.22,0.16,0.1711,0.1711,2493,0.0000,1.0
2019-08-23,0.16,0.1705,0.16,0.17,0.17,42362,0.0000,1.0
2019-08-22,0.16,0.181,0.16,0.17,0.17,33907,0.0000,1.0
2019-08-21,0.16,0.225,0.15,0.15,0.15,3196,0.0000,1.0
2019-08-20,0.2335,0.2335,0.16,0.16,0.16,1357,0.0000,1.0
2019-08-19,0.18,0.18,0.161,0.161,0.161,832,0.0000,1.0
2019-08-16,0.13115,0.16,0.13115,0.16,0.16,21209,0.0000,1.0
2019-08-15,0.1311,0.16,0.1311,0.16,0.16,3857,0.0000,1.0
2019-08-14,0.15,0.15,0.15,0.15,0.15,7316,0.0000,1.0
2019-08-13,0.1625,0.232,0.155,0.166,0.166,23859,0.0000,1.0
2019-08-12,0.15,0.2,0.15,0.161,0.161,19883,0.0000,1.0
2019-08-09,0.15,0.16495,0.15,0.15,0.15,31730,0.0000,1.0
2019-08-08,0.18,0.18,0.15,0.15,0.15,2281,0.0000,1.0
2019-08-07,0.1501,0.15025,0.15,0.15025,0.15025,16465,0.0000,1.0
2019-08-06,0.15,0.18,0.15,0.15,0.15,1836,0.0000,1.0
2019-08-05,0.155,0.18,0.15,0.15,0.15,16071,0.0000,1.0
2019-08-02,0.152,0.152,0.152,0.152,0.152,2100,0.0000,1.0
2019-08-01,0.161095,0.161095,0.161095,0.161095,0.161095,1204,0.0000,1.0
2019-07-31,0.1311,0.18,0.1311,0.151,0.151,6912,0.0000,1.0
2019-07-30,0.1705,0.1705,0.1311,0.15,0.15,113804,0.0000,1.0
2019-07-29,0.18,0.18,0.16,0.16,0.16,27310,0.0000,1.0
2019-07-26,0.1661,0.18,0.16,0.16,0.16,46393,0.0000,1.0
2019-07-25,0.185,0.25,0.165,0.166,0.166,25728,0.0000,1.0
2019-07-24,0.145,0.165,0.13,0.165,0.165,71323,0.0000,1.0
2019-07-23,0.1636,0.1636,0.1201,0.15,0.15,72346,0.0000,1.0
2019-07-22,0.12625,0.1599,0.12625,0.14,0.14,5310,0.0000,1.0
2019-07-19,0.1286,0.1286,0.1286,0.1286,0.1286,1024,0.0000,1.0
2019-07-18,0.13,0.135,0.13,0.135,0.135,5512,0.0000,1.0
2019-07-17,0.1275,0.15,0.1275,0.1281,0.1281,19269,0.0000,1.0
2019-07-16,0.127,0.1298,0.127,0.1298,0.1298,741,0.0000,1.0
2019-07-15,0.13,0.16,0.1251,0.147,0.147,44034,0.0000,1.0
2019-07-12,0.14,0.14,0.14,0.14,0.14,8919,0.0000,1.0
2019-07-11,0.131,0.16,0.13,0.13,0.13,13961,0.0000,1.0
2019-07-10,0.16,0.16,0.14,0.14,0.14,7869,0.0000,1.0
2019-07-09,0.15,0.16,0.135,0.16,0.16,28022,0.0000,1.0
2019-07-08,0.1201,0.15,0.1201,0.15,0.15,32191,0.0000,1.0
2019-07-05,0.1201,0.1799,0.1201,0.14,0.14,39427,0.0000,1.0
2019-07-03,0.1305,0.14,0.1305,0.14,0.14,7236,0.0000,1.0
2019-07-02,0.14,0.1799,0.14,0.14,0.14,5210,0.0000,1.0
2019-07-01,0.202525,0.202525,0.14,0.15,0.15,13971,0.0000,1.0
2019-06-28,0.14,0.18,0.14,0.14,0.14,27976,0.0000,1.0
2019-06-27,0.14,0.16,0.1224,0.15,0.15,83942,0.0000,1.0
2019-06-26,0.12,0.17,0.12,0.12,0.12,22020,0.0000,1.0
2019-06-25,0.15,0.15,0.1155,0.14,0.14,64216,0.0000,1.0
2019-06-24,0.115,0.16,0.115,0.15,0.15,45870,0.0000,1.0
2019-06-21,0.13,0.16,0.12,0.1305,0.1305,34529,0.0000,1.0
2019-06-19,0.2,0.2,0.11,0.1182,0.1182,513268,0.0000,1.0
2019-06-18,0.2885,0.3399,0.253,0.2701,0.2701,798217,0.0000,1.0
2019-06-17,0.3019,0.3045,0.2222,0.2544,0.2544,493837,0.0000,1.0
2019-06-14,0.3198,0.33,0.3,0.31,0.31,220519,0.0000,1.0
2019-06-13,0.31,0.36,0.3043,0.31598,0.31598,617695,0.0000,1.0
2019-06-12,0.355,0.37,0.32,0.3331,0.3331,279520,0.0000,1.0
2019-06-11,0.4,0.42,0.35,0.352,0.352,475855,0.0000,1.0
2019-06-10,0.45,0.45,0.36,0.3888,0.3888,321803,0.0000,1.0
2019-06-07,0.7,0.702152,0.4,0.45,0.45,416310,0.0000,1.0
2019-06-06,0.721,0.73,0.7,0.73,0.73,36902,0.0000,1.0
2019-06-05,0.695,0.7099,0.69,0.695,0.695,50292,0.0000,1.0
2019-06-04,0.69,0.72,0.69,0.712617,0.712617,1508,0.0000,1.0
2019-06-03,0.7004,0.7004,0.69,0.7,0.7,20638,0.0000,1.0
2019-05-31,0.7004,0.7004,0.68,0.682,0.682,20438,0.0000,1.0
2019-05-30,0.67,0.72,0.67,0.68,0.68,34767,0.0000,1.0
2019-05-29,0.67,0.68,0.67,0.6748,0.6748,23358,0.0000,1.0
2019-05-28,0.68,0.694364,0.67,0.67,0.67,59769,0.0000,1.0
2019-05-24,0.7,0.7,0.66,0.6779,0.6779,1746,0.0000,1.0
2019-05-23,0.728,0.728,0.6808,0.6808,0.6808,22400,0.0000,1.0
2019-05-22,0.771,0.771,0.7,0.73,0.73,27430,0.0000,1.0
2019-05-21,0.7,0.72,0.7,0.72,0.72,9194,0.0000,1.0
2019-05-20,0.7237,0.7237,0.705,0.705,0.705,50890,0.0000,1.0
2019-05-17,0.72,0.746369,0.72,0.72,0.72,41864,0.0000,1.0
2019-05-16,0.75,0.75,0.72,0.72,0.72,94359,0.0000,1.0
2019-05-15,0.7737,0.7737,0.75,0.751,0.751,132195,0.0000,1.0
2019-05-14,0.7954,0.7954,0.77,0.773421,0.773421,38453,0.0000,1.0
2019-05-13,0.81,0.8196,0.7901,0.8196,0.8196,33805,0.0000,1.0
2019-05-10,0.8428,0.8428,0.81,0.8197,0.8197,32602,0.0000,1.0
2019-05-09,0.82,0.841,0.82,0.841,0.841,6929,0.0000,1.0
2019-05-08,0.827,0.8471,0.825,0.8428,0.8428,18745,0.0000,1.0
2019-05-07,0.85,0.8552,0.828,0.83,0.83,15924,0.0000,1.0
2019-05-06,0.83,0.8522,0.8251,0.8301,0.8301,15568,0.0000,1.0
2019-05-03,0.8358,0.8358,0.82,0.8203,0.8203,14442,0.0000,1.0
2019-05-02,0.825,0.831,0.825,0.825,0.825,11439,0.0000,1.0
2019-05-01,0.82,0.8358,0.82,0.8358,0.8358,2772,0.0000,1.0
2019-04-30,0.83,0.84,0.82,0.8201,0.8201,48938,0.0000,1.0
2019-04-29,0.85,0.87,0.84,0.8401,0.8401,44496,0.0000,1.0
2019-04-26,0.86,0.87,0.85,0.87,0.87,79852,0.0000,1.0
2019-04-25,0.89,0.8945,0.88,0.88,0.88,96870,0.0000,1.0
2019-04-24,0.9004,0.9144,0.89,0.89,0.89,2486,0.0000,1.0
2019-04-23,0.9043,0.9045,0.9,0.902,0.902,14157,0.0000,1.0
2019-04-22,0.906,0.9302,0.906,0.9102,0.9102,9871,0.0000,1.0
2019-04-18,0.91,0.9182,0.91,0.91,0.91,3466,0.0000,1.0
2019-04-17,0.928,0.928,0.91,0.9252,0.9252,38847,0.0000,1.0
2019-04-16,0.906,0.928,0.906,0.928,0.928,12191,0.0000,1.0
2019-04-15,0.9,0.9273,0.9,0.9273,0.9273,1496,0.0000,1.0
2019-04-12,0.9245,0.9245,0.911,0.9128,0.9128,5856,0.0000,1.0
2019-04-11,0.9021,0.92,0.9,0.9191,0.9191,24771,0.0000,1.0
2019-04-10,0.906,0.928,0.906,0.928,0.928,9082,0.0000,1.0
2019-04-09,0.9021,0.9253,0.88144,0.9231,0.9231,129953,0.0000,1.0
2019-04-08,0.9179,0.9289,0.89,0.9289,0.9289,14928,0.0000,1.0
2019-04-05,0.86,0.91,0.86,0.9,0.9,27048,0.0000,1.0
2019-04-04,0.8549,0.856,0.8321,0.856,0.856,11288,0.0000,1.0
2019-04-03,0.8644,0.883927,0.832,0.832,0.832,17027,0.0000,1.0
2019-04-02,0.86,0.89,0.86,0.8643,0.8643,14482,0.0000,1.0
2019-04-01,0.89,0.9,0.86,0.862,0.862,13815,0.0000,1.0
2019-03-29,0.848,0.8999,0.848,0.89,0.89,14085,0.0000,1.0
2019-03-28,0.8,0.8751,0.8,0.8623,0.8623,30122,0.0000,1.0
2019-03-27,0.8041,0.8243,0.7923,0.8243,0.8243,9029,0.0000,1.0
2019-03-26,0.819,0.82,0.6863,0.82,0.82,51597,0.0000,1.0
2019-03-25,0.83,0.8355,0.8,0.81,0.81,37427,0.0000,1.0
2019-03-22,0.87,0.8818,0.811,0.839384,0.839384,17381,0.0000,1.0
2019-03-21,0.8801,0.8801,0.87,0.87,0.87,2824,0.0000,1.0
2019-03-20,0.88,0.91,0.8643,0.91,0.91,7392,0.0000,1.0
2019-03-19,0.8827,0.9,0.88,0.8876,0.8876,6952,0.0000,1.0
2019-03-18,0.88,0.91,0.88,0.91,0.91,6526,0.0000,1.0
2019-03-15,0.883,0.8907,0.883,0.883,0.883,9590,0.0000,1.0
2019-03-14,0.91,0.91,0.8822,0.89,0.89,9332,0.0000,1.0
2019-03-13,0.91,0.9311,0.8822,0.9056,0.9056,11877,0.0000,1.0
2019-03-12,0.8961,0.8961,0.87,0.88,0.88,3623,0.0000,1.0
2019-03-11,0.8448,0.8991,0.8448,0.87,0.87,10892,0.0000,1.0
2019-03-08,0.86,0.8899,0.83,0.8547,0.8547,33616,0.0000,1.0
2019-03-07,0.89,0.908001,0.87,0.88,0.88,20047,0.0000,1.0
2019-03-06,0.9476,0.9476,0.901,0.9119,0.9119,63762,0.0000,1.0
2019-03-05,0.89,0.9767,0.89,0.92,0.92,337261,0.0000,1.0
2019-03-04,0.89,0.8944,0.89,0.89,0.89,4547,0.0000,1.0
2019-03-01,0.8728,0.8944,0.87,0.893,0.893,31526,0.0000,1.0
2019-02-28,0.89,0.898503,0.8402,0.898503,0.898503,19855,0.0000,1.0
2019-02-27,0.92,0.92,0.88605,0.892,0.892,31454,0.0000,1.0
2019-02-26,0.885,0.9045,0.885,0.9006,0.9006,11118,0.0000,1.0
2019-02-25,0.9,0.9199,0.88,0.89,0.89,100913,0.0000,1.0
2019-02-22,0.9185,0.92,0.83,0.9,0.9,80526,0.0000,1.0
2019-02-21,0.9143,0.9143,0.887,0.89,0.89,59501,0.0000,1.0
2019-02-20,0.8543,0.8645,0.854,0.8645,0.8645,1230,0.0000,1.0
2019-02-19,0.85,0.868,0.8,0.86692,0.86692,59057,0.0000,1.0
2019-02-15,0.8795,0.8795,0.8539,0.856199,0.856199,22084,0.0000,1.0
2019-02-14,0.887,0.8999,0.8704,0.8715,0.8715,12262,0.0000,1.0
2019-02-13,0.89,0.89,0.8747,0.88,0.88,17197,0.0000,1.0
2019-02-12,0.88,0.8938,0.87,0.8938,0.8938,22287,0.0000,1.0
2019-02-11,0.86,0.894519,0.86,0.8757,0.8757,23290,0.0000,1.0
2019-02-08,0.89,0.92,0.83,0.83,0.83,23794,0.0000,1.0
2019-02-07,0.89,0.89,0.86,0.87,0.87,60640,0.0000,1.0
2019-02-06,0.85,0.8925,0.85,0.87,0.87,20800,0.0000,1.0
2019-02-05,0.8511,0.853,0.85,0.853,0.853,4116,0.0000,1.0
2019-02-04,0.9,0.9,0.85,0.8502,0.8502,3756,0.0000,1.0
2019-02-01,0.9,0.9,0.86,0.87,0.87,20240,0.0000,1.0
2019-01-31,0.9,0.9,0.8041,0.8716,0.8716,16912,0.0000,1.0
2019-01-30,0.82,0.8899,0.82,0.8701,0.8701,114841,0.0000,1.0
2019-01-29,0.71,0.8155,0.71,0.8155,0.8155,34585,0.0000,1.0
2019-01-28,0.7392,0.75,0.7,0.722,0.722,4427,0.0000,1.0
2019-01-25,0.743,0.7699,0.743,0.75,0.75,14172,0.0000,1.0
2019-01-24,0.736,0.7437,0.736,0.737,0.737,678,0.0000,1.0
2019-01-23,0.754,0.754,0.7221,0.7267,0.7267,12751,0.0000,1.0
2019-01-22,0.73,0.76,0.73,0.7481,0.7481,19467,0.0000,1.0
2019-01-18,0.7275,0.8131,0.72,0.72629,0.72629,26562,0.0000,1.0
2019-01-17,0.7488,0.7488,0.7,0.7265,0.7265,7233,0.0000,1.0
2019-01-16,0.7254,0.7254,0.7,0.72,0.72,7414,0.0000,1.0
2019-01-15,0.71,0.71,0.69,0.6935,0.6935,7599,0.0000,1.0
2019-01-14,0.68,0.7268,0.6702,0.69,0.69,6847,0.0000,1.0